nqpoint: 357    
npath: 7      
segment_nqpoint:
- 51
- 51
- 51
- 51
- 51
- 51
- 51
labels:
- [ '$\Gamma$', 'X' ]
- [ 'X', 'M' ]
- [ 'M', '$\Gamma$' ]
- [ '$\Gamma$', 'R' ]
- [ 'R', 'X' ]
- [ 'R', 'M' ]
- [ 'M', 'X$_1$' ]
reciprocal_lattice:
- [   0.13181541,   0.00000000,   0.00000000 ] # a*
- [   0.00000000,   0.13181541,   0.00000000 ] # b*
- [   0.00000000,   0.00000000,   0.13181541 ] # c*
natom: 20     
lattice:
- [     7.586366182602271,     0.000000000000000,     0.000000000000000 ] # a
- [     0.000000000000000,     7.586366182602271,     0.000000000000000 ] # b
- [     0.000000000000000,     0.000000000000000,     7.586366182602271 ] # c
points:
- symbol: S  # 1
  coordinates: [  0.192985605054711,  0.192985605054711,  0.192985605054711 ]
  mass: 32.065000
- symbol: S  # 2
  coordinates: [  0.307014394945289,  0.807014394945289,  0.692985605054711 ]
  mass: 32.065000
- symbol: S  # 3
  coordinates: [  0.692985605054711,  0.307014394945289,  0.807014394945289 ]
  mass: 32.065000
- symbol: S  # 4
  coordinates: [  0.807014394945289,  0.692985605054711,  0.307014394945289 ]
  mass: 32.065000
- symbol: Br # 5
  coordinates: [  0.849443869812526,  0.849443869812526,  0.849443869812526 ]
  mass: 79.904000
- symbol: Br # 6
  coordinates: [  0.150556130187474,  0.349443869812526,  0.650556130187474 ]
  mass: 79.904000
- symbol: Br # 7
  coordinates: [  0.650556130187474,  0.150556130187474,  0.349443869812526 ]
  mass: 79.904000
- symbol: Br # 8
  coordinates: [  0.349443869812526,  0.650556130187474,  0.150556130187474 ]
  mass: 79.904000
- symbol: Ag # 9
  coordinates: [  0.542602358748732,  0.025351620276026,  0.740529490032500 ]
  mass: 107.868200
- symbol: Ag # 10
  coordinates: [  0.042602358748732,  0.474648379723974,  0.259470509967500 ]
  mass: 107.868200
- symbol: Ag # 11
  coordinates: [  0.957397641251268,  0.974648379723974,  0.240529490032500 ]
  mass: 107.868200
- symbol: Ag # 12
  coordinates: [  0.474648379723974,  0.259470509967500,  0.042602358748732 ]
  mass: 107.868200
- symbol: Ag # 13
  coordinates: [  0.974648379723974,  0.240529490032500,  0.957397641251268 ]
  mass: 107.868200
- symbol: Ag # 14
  coordinates: [  0.240529490032500,  0.957397641251268,  0.974648379723974 ]
  mass: 107.868200
- symbol: Ag # 15
  coordinates: [  0.025351620276026,  0.740529490032500,  0.542602358748732 ]
  mass: 107.868200
- symbol: Ag # 16
  coordinates: [  0.457397641251275,  0.525351620276026,  0.759470509967500 ]
  mass: 107.868200
- symbol: Ag # 17
  coordinates: [  0.740529490032500,  0.542602358748732,  0.025351620276026 ]
  mass: 107.868200
- symbol: Ag # 18
  coordinates: [  0.259470509967500,  0.042602358748732,  0.474648379723974 ]
  mass: 107.868200
- symbol: Ag # 19
  coordinates: [  0.525351620276026,  0.759470509967500,  0.457397641251275 ]
  mass: 107.868200
- symbol: Ag # 20
  coordinates: [  0.759470509967500,  0.457397641251275,  0.525351620276026 ]
  mass: 107.868200

phonon:
- q-position: [    0.0000000,    0.0000000,    0.0000000 ]
  distance:    0.0000000
  band:
  - # 1
    frequency:   -0.0201633782
  - # 2
    frequency:   -0.0201633782
  - # 3
    frequency:   -0.0201633782
  - # 4
    frequency:    0.9933528615
  - # 5
    frequency:    0.9933528615
  - # 6
    frequency:    1.1699364631
  - # 7
    frequency:    1.1699364631
  - # 8
    frequency:    1.1699364631
  - # 9
    frequency:    1.3114245307
  - # 10
    frequency:    1.3114245307
  - # 11
    frequency:    1.3114245307
  - # 12
    frequency:    1.4293398524
  - # 13
    frequency:    1.5699532974
  - # 14
    frequency:    1.5699532974
  - # 15
    frequency:    1.5699532974
  - # 16
    frequency:    1.6524832472
  - # 17
    frequency:    1.6524832472
  - # 18
    frequency:    1.9446997461
  - # 19
    frequency:    1.9446997461
  - # 20
    frequency:    1.9446997461
  - # 21
    frequency:    2.1226902879
  - # 22
    frequency:    2.2033125344
  - # 23
    frequency:    2.2033125344
  - # 24
    frequency:    2.2033125344
  - # 25
    frequency:    2.4402375591
  - # 26
    frequency:    2.4402375591
  - # 27
    frequency:    2.4402375591
  - # 28
    frequency:    2.5974799247
  - # 29
    frequency:    2.5975250689
  - # 30
    frequency:    2.5975250689
  - # 31
    frequency:    2.5975250689
  - # 32
    frequency:    2.7348154068
  - # 33
    frequency:    2.7348154068
  - # 34
    frequency:    2.7847975946
  - # 35
    frequency:    2.7847975946
  - # 36
    frequency:    2.7847975946
  - # 37
    frequency:    3.0238761224
  - # 38
    frequency:    3.0416459594
  - # 39
    frequency:    3.0416459594
  - # 40
    frequency:    3.0416459594
  - # 41
    frequency:    3.0634459650
  - # 42
    frequency:    3.0634459650
  - # 43
    frequency:    3.6717904439
  - # 44
    frequency:    3.6717904439
  - # 45
    frequency:    3.6717904439
  - # 46
    frequency:    4.4254047213
  - # 47
    frequency:    4.4254047213
  - # 48
    frequency:    4.4254047213
  - # 49
    frequency:    8.0804123884
  - # 50
    frequency:    8.0804123884
  - # 51
    frequency:    8.0804123884
  - # 52
    frequency:    8.1944228200
  - # 53
    frequency:    8.1944228200
  - # 54
    frequency:    8.3286413848
  - # 55
    frequency:    8.3286413848
  - # 56
    frequency:    8.3286413848
  - # 57
    frequency:    8.9887407841
  - # 58
    frequency:    9.0797415555
  - # 59
    frequency:    9.0797415555
  - # 60
    frequency:    9.0797415555

- q-position: [    0.0000000,    0.0100000,    0.0000000 ]
  distance:    0.0013182
  band:
  - # 1
    frequency:   -0.0421623793
  - # 2
    frequency:    0.0377492491
  - # 3
    frequency:    0.0383565051
  - # 4
    frequency:    0.9930778837
  - # 5
    frequency:    0.9933266007
  - # 6
    frequency:    1.1643938380
  - # 7
    frequency:    1.1702611549
  - # 8
    frequency:    1.1753909669
  - # 9
    frequency:    1.3105357723
  - # 10
    frequency:    1.3111870884
  - # 11
    frequency:    1.3124262534
  - # 12
    frequency:    1.4293473621
  - # 13
    frequency:    1.5661677022
  - # 14
    frequency:    1.5693300066
  - # 15
    frequency:    1.5737333813
  - # 16
    frequency:    1.6524676224
  - # 17
    frequency:    1.6530250096
  - # 18
    frequency:    1.9442931249
  - # 19
    frequency:    1.9447087452
  - # 20
    frequency:    1.9450132241
  - # 21
    frequency:    2.1220420766
  - # 22
    frequency:    2.2010189641
  - # 23
    frequency:    2.2041043257
  - # 24
    frequency:    2.2057530129
  - # 25
    frequency:    2.4318649699
  - # 26
    frequency:    2.4404214344
  - # 27
    frequency:    2.4484478227
  - # 28
    frequency:    2.5954545745
  - # 29
    frequency:    2.5960679980
  - # 30
    frequency:    2.5991143379
  - # 31
    frequency:    2.5993970274
  - # 32
    frequency:    2.7349078608
  - # 33
    frequency:    2.7351309964
  - # 34
    frequency:    2.7845067118
  - # 35
    frequency:    2.7849003388
  - # 36
    frequency:    2.7853631198
  - # 37
    frequency:    3.0238660940
  - # 38
    frequency:    3.0399267880
  - # 39
    frequency:    3.0412062946
  - # 40
    frequency:    3.0434062554
  - # 41
    frequency:    3.0634184652
  - # 42
    frequency:    3.0636419978
  - # 43
    frequency:    3.6621876058
  - # 44
    frequency:    3.6720429919
  - # 45
    frequency:    3.6812992791
  - # 46
    frequency:    4.4134273438
  - # 47
    frequency:    4.4255770315
  - # 48
    frequency:    4.4370330345
  - # 49
    frequency:    8.0736664055
  - # 50
    frequency:    8.0790551281
  - # 51
    frequency:    8.0869150532
  - # 52
    frequency:    8.1939533000
  - # 53
    frequency:    8.1958899906
  - # 54
    frequency:    8.3194731792
  - # 55
    frequency:    8.3292440440
  - # 56
    frequency:    8.3383218232
  - # 57
    frequency:    8.9886012156
  - # 58
    frequency:    9.0792493902
  - # 59
    frequency:    9.0797103522
  - # 60
    frequency:    9.0800134504

- q-position: [    0.0000000,    0.0200000,    0.0000000 ]
  distance:    0.0026363
  band:
  - # 1
    frequency:   -0.0513723618
  - # 2
    frequency:    0.0620780409
  - # 3
    frequency:    0.0831498221
  - # 4
    frequency:    0.9922621095
  - # 5
    frequency:    0.9932479870
  - # 6
    frequency:    1.1587832680
  - # 7
    frequency:    1.1712265398
  - # 8
    frequency:    1.1807358212
  - # 9
    frequency:    1.3097706741
  - # 10
    frequency:    1.3104770852
  - # 11
    frequency:    1.3135305400
  - # 12
    frequency:    1.4293660006
  - # 13
    frequency:    1.5623922427
  - # 14
    frequency:    1.5675189821
  - # 15
    frequency:    1.5774947323
  - # 16
    frequency:    1.6524210529
  - # 17
    frequency:    1.6545933632
  - # 18
    frequency:    1.9437760202
  - # 19
    frequency:    1.9447335044
  - # 20
    frequency:    1.9452509285
  - # 21
    frequency:    2.1201702664
  - # 22
    frequency:    2.1988778638
  - # 23
    frequency:    2.2064073265
  - # 24
    frequency:    2.2083317035
  - # 25
    frequency:    2.4233928352
  - # 26
    frequency:    2.4409700813
  - # 27
    frequency:    2.4564311885
  - # 28
    frequency:    2.5932262091
  - # 29
    frequency:    2.5947350913
  - # 30
    frequency:    2.6008466053
  - # 31
    frequency:    2.6011716237
  - # 32
    frequency:    2.7351835678
  - # 33
    frequency:    2.7360731652
  - # 34
    frequency:    2.7844120572
  - # 35
    frequency:    2.7852103951
  - # 36
    frequency:    2.7862807898
  - # 37
    frequency:    3.0238326231
  - # 38
    frequency:    3.0382446243
  - # 39
    frequency:    3.0399211209
  - # 40
    frequency:    3.0452121949
  - # 41
    frequency:    3.0633379020
  - # 42
    frequency:    3.0641993455
  - # 43
    frequency:    3.6525026332
  - # 44
    frequency:    3.6727996601
  - # 45
    frequency:    3.6907010825
  - # 46
    frequency:    4.4011096391
  - # 47
    frequency:    4.4260930349
  - # 48
    frequency:    4.4483049517
  - # 49
    frequency:    8.0667209015
  - # 50
    frequency:    8.0751780553
  - # 51
    frequency:    8.0931200005
  - # 52
    frequency:    8.1925704629
  - # 53
    frequency:    8.2000966798
  - # 54
    frequency:    8.3108901701
  - # 55
    frequency:    8.3310262311
  - # 56
    frequency:    8.3484516375
  - # 57
    frequency:    8.9881830321
  - # 58
    frequency:    9.0785382003
  - # 59
    frequency:    9.0796162638
  - # 60
    frequency:    9.0800639198

- q-position: [    0.0000000,    0.0300000,    0.0000000 ]
  distance:    0.0039545
  band:
  - # 1
    frequency:   -0.0546522614
  - # 2
    frequency:    0.0820954520
  - # 3
    frequency:    0.1266592846
  - # 4
    frequency:    0.9909321161
  - # 5
    frequency:    0.9931175404
  - # 6
    frequency:    1.1531237292
  - # 7
    frequency:    1.1728074594
  - # 8
    frequency:    1.1859480100
  - # 9
    frequency:    1.3091402401
  - # 10
    frequency:    1.3093013394
  - # 11
    frequency:    1.3147272886
  - # 12
    frequency:    1.4293842003
  - # 13
    frequency:    1.5586449608
  - # 14
    frequency:    1.5646758879
  - # 15
    frequency:    1.5812265145
  - # 16
    frequency:    1.6523444502
  - # 17
    frequency:    1.6570384460
  - # 18
    frequency:    1.9431326049
  - # 19
    frequency:    1.9447673723
  - # 20
    frequency:    1.9454287866
  - # 21
    frequency:    2.1172614283
  - # 22
    frequency:    2.1968914475
  - # 23
    frequency:    2.2100362594
  - # 24
    frequency:    2.2110370080
  - # 25
    frequency:    2.4148816668
  - # 26
    frequency:    2.4418745202
  - # 27
    frequency:    2.4641222932
  - # 28
    frequency:    2.5907996273
  - # 29
    frequency:    2.5935195411
  - # 30
    frequency:    2.6027365566
  - # 31
    frequency:    2.6028627950
  - # 32
    frequency:    2.7356376514
  - # 33
    frequency:    2.7376284652
  - # 34
    frequency:    2.7844540594
  - # 35
    frequency:    2.7857333050
  - # 36
    frequency:    2.7876073513
  - # 37
    frequency:    3.0237642172
  - # 38
    frequency:    3.0365957692
  - # 39
    frequency:    3.0378725914
  - # 40
    frequency:    3.0470686841
  - # 41
    frequency:    3.0632099735
  - # 42
    frequency:    3.0650465222
  - # 43
    frequency:    3.6427463490
  - # 44
    frequency:    3.6740575314
  - # 45
    frequency:    3.6999815315
  - # 46
    frequency:    4.3884618804
  - # 47
    frequency:    4.4269499611
  - # 48
    frequency:    4.4592144343
  - # 49
    frequency:    8.0596107953
  - # 50
    frequency:    8.0692533081
  - # 51
    frequency:    8.0989606890
  - # 52
    frequency:    8.1903458396
  - # 53
    frequency:    8.2065704020
  - # 54
    frequency:    8.3029767485
  - # 55
    frequency:    8.3339162142
  - # 56
    frequency:    8.3589765752
  - # 57
    frequency:    8.9874877852
  - # 58
    frequency:    9.0776093243
  - # 59
    frequency:    9.0794578714
  - # 60
    frequency:    9.0798918993

- q-position: [    0.0000000,    0.0400000,    0.0000000 ]
  distance:    0.0052726
  band:
  - # 1
    frequency:   -0.0530632147
  - # 2
    frequency:    0.1006414145
  - # 3
    frequency:    0.1696513332
  - # 4
    frequency:    0.9891294179
  - # 5
    frequency:    0.9929361781
  - # 6
    frequency:    1.1474331462
  - # 7
    frequency:    1.1749648095
  - # 8
    frequency:    1.1910029307
  - # 9
    frequency:    1.3076707285
  - # 10
    frequency:    1.3086557855
  - # 11
    frequency:    1.3160067301
  - # 12
    frequency:    1.4293830110
  - # 13
    frequency:    1.5549461851
  - # 14
    frequency:    1.5610065628
  - # 15
    frequency:    1.5849201775
  - # 16
    frequency:    1.6522393233
  - # 17
    frequency:    1.6601642786
  - # 18
    frequency:    1.9423496302
  - # 19
    frequency:    1.9447994667
  - # 20
    frequency:    1.9455602492
  - # 21
    frequency:    2.1135483011
  - # 22
    frequency:    2.1950583870
  - # 23
    frequency:    2.2138546824
  - # 24
    frequency:    2.2147603524
  - # 25
    frequency:    2.4063895980
  - # 26
    frequency:    2.4431196430
  - # 27
    frequency:    2.4714566774
  - # 28
    frequency:    2.5881692714
  - # 29
    frequency:    2.5924140235
  - # 30
    frequency:    2.6045058429
  - # 31
    frequency:    2.6048032273
  - # 32
    frequency:    2.7362622770
  - # 33
    frequency:    2.7397755315
  - # 34
    frequency:    2.7845959231
  - # 35
    frequency:    2.7864785474
  - # 36
    frequency:    2.7893745982
  - # 37
    frequency:    3.0236351213
  - # 38
    frequency:    3.0349769576
  - # 39
    frequency:    3.0351597718
  - # 40
    frequency:    3.0489810006
  - # 41
    frequency:    3.0630438360
  - # 42
    frequency:    3.0661092172
  - # 43
    frequency:    3.6329286286
  - # 44
    frequency:    3.6758117777
  - # 45
    frequency:    3.7091248519
  - # 46
    frequency:    4.3754960314
  - # 47
    frequency:    4.4281432313
  - # 48
    frequency:    4.4697566381
  - # 49
    frequency:    8.0523637905
  - # 50
    frequency:    8.0618175712
  - # 51
    frequency:    8.1043575665
  - # 52
    frequency:    8.1873825216
  - # 53
    frequency:    8.2147738827
  - # 54
    frequency:    8.2958293864
  - # 55
    frequency:    8.3378105740
  - # 56
    frequency:    8.3698495484
  - # 57
    frequency:    8.9865180113
  - # 58
    frequency:    9.0764641957
  - # 59
    frequency:    9.0792328639
  - # 60
    frequency:    9.0794964144

- q-position: [    0.0000000,    0.0500000,    0.0000000 ]
  distance:    0.0065908
  band:
  - # 1
    frequency:   -0.0460348458
  - # 2
    frequency:    0.1184096404
  - # 3
    frequency:    0.2123418028
  - # 4
    frequency:    0.9869069704
  - # 5
    frequency:    0.9927052962
  - # 6
    frequency:    1.1417285301
  - # 7
    frequency:    1.1776491111
  - # 8
    frequency:    1.1958743695
  - # 9
    frequency:    1.3055995397
  - # 10
    frequency:    1.3083288998
  - # 11
    frequency:    1.3173595021
  - # 12
    frequency:    1.4293365440
  - # 13
    frequency:    1.5513183389
  - # 14
    frequency:    1.5567237152
  - # 15
    frequency:    1.5885693061
  - # 16
    frequency:    1.6521077642
  - # 17
    frequency:    1.6637723188
  - # 18
    frequency:    1.9414168881
  - # 19
    frequency:    1.9448149732
  - # 20
    frequency:    1.9456558775
  - # 21
    frequency:    2.1092536435
  - # 22
    frequency:    2.1933736336
  - # 23
    frequency:    2.2167681219
  - # 24
    frequency:    2.2203592117
  - # 25
    frequency:    2.3979725062
  - # 26
    frequency:    2.4446839997
  - # 27
    frequency:    2.4783733037
  - # 28
    frequency:    2.5853424368
  - # 29
    frequency:    2.5914089781
  - # 30
    frequency:    2.6061323891
  - # 31
    frequency:    2.6070695583
  - # 32
    frequency:    2.7370470722
  - # 33
    frequency:    2.7424862489
  - # 34
    frequency:    2.7848169882
  - # 35
    frequency:    2.7874599374
  - # 36
    frequency:    2.7915955993
  - # 37
    frequency:    3.0233812217
  - # 38
    frequency:    3.0319010028
  - # 39
    frequency:    3.0333853762
  - # 40
    frequency:    3.0509547752
  - # 41
    frequency:    3.0628516723
  - # 42
    frequency:    3.0673325184
  - # 43
    frequency:    3.6230584849
  - # 44
    frequency:    3.6780557094
  - # 45
    frequency:    3.7181136317
  - # 46
    frequency:    4.3622259265
  - # 47
    frequency:    4.4296665139
  - # 48
    frequency:    4.4799278284
  - # 49
    frequency:    8.0450018672
  - # 50
    frequency:    8.0533318484
  - # 51
    frequency:    8.1092186743
  - # 52
    frequency:    8.1837982431
  - # 53
    frequency:    8.2242452676
  - # 54
    frequency:    8.2895558208
  - # 55
    frequency:    8.3425911326
  - # 56
    frequency:    8.3810293650
  - # 57
    frequency:    8.9852771630
  - # 58
    frequency:    9.0751043456
  - # 59
    frequency:    9.0788765810
  - # 60
    frequency:    9.0789381131

- q-position: [    0.0000000,    0.0600000,    0.0000000 ]
  distance:    0.0079089
  band:
  - # 1
    frequency:   -0.0298285764
  - # 2
    frequency:    0.1357075743
  - # 3
    frequency:    0.2547745772
  - # 4
    frequency:    0.9843253633
  - # 5
    frequency:    0.9924268986
  - # 6
    frequency:    1.1360260989
  - # 7
    frequency:    1.1808044399
  - # 8
    frequency:    1.2005345940
  - # 9
    frequency:    1.3031046999
  - # 10
    frequency:    1.3081713255
  - # 11
    frequency:    1.3187767695
  - # 12
    frequency:    1.4292125229
  - # 13
    frequency:    1.5477856579
  - # 14
    frequency:    1.5520221247
  - # 15
    frequency:    1.5921694305
  - # 16
    frequency:    1.6519524281
  - # 17
    frequency:    1.6676865325
  - # 18
    frequency:    1.9403271633
  - # 19
    frequency:    1.9447955513
  - # 20
    frequency:    1.9457234560
  - # 21
    frequency:    2.1045641826
  - # 22
    frequency:    2.1918282612
  - # 23
    frequency:    2.2197586816
  - # 24
    frequency:    2.2266484998
  - # 25
    frequency:    2.3896842639
  - # 26
    frequency:    2.4465394987
  - # 27
    frequency:    2.4848179078
  - # 28
    frequency:    2.5823390909
  - # 29
    frequency:    2.5904911697
  - # 30
    frequency:    2.6077686198
  - # 31
    frequency:    2.6095608318
  - # 32
    frequency:    2.7379796787
  - # 33
    frequency:    2.7457267179
  - # 34
    frequency:    2.7851055604
  - # 35
    frequency:    2.7886962578
  - # 36
    frequency:    2.7942713381
  - # 37
    frequency:    3.0227783465
  - # 38
    frequency:    3.0283530702
  - # 39
    frequency:    3.0318186831
  - # 40
    frequency:    3.0529959705
  - # 41
    frequency:    3.0626481949
  - # 42
    frequency:    3.0686840274
  - # 43
    frequency:    3.6131441427
  - # 44
    frequency:    3.6807808425
  - # 45
    frequency:    3.7269286001
  - # 46
    frequency:    4.3486674866
  - # 47
    frequency:    4.4315118017
  - # 48
    frequency:    4.4897253032
  - # 49
    frequency:    8.0375425746
  - # 50
    frequency:    8.0441433182
  - # 51
    frequency:    8.1134428652
  - # 52
    frequency:    8.1797110787
  - # 53
    frequency:    8.2346362438
  - # 54
    frequency:    8.2842716330
  - # 55
    frequency:    8.3481392715
  - # 56
    frequency:    8.3924796577
  - # 57
    frequency:    8.9837695211
  - # 58
    frequency:    9.0735314065
  - # 59
    frequency:    9.0780316067
  - # 60
    frequency:    9.0785697717

- q-position: [    0.0000000,    0.0700000,    0.0000000 ]
  distance:    0.0092271
  band:
  - # 1
    frequency:    0.0296900754
  - # 2
    frequency:    0.1526972343
  - # 3
    frequency:    0.2969441466
  - # 4
    frequency:    0.9814493236
  - # 5
    frequency:    0.9921037890
  - # 6
    frequency:    1.1303413780
  - # 7
    frequency:    1.1843721098
  - # 8
    frequency:    1.2049546206
  - # 9
    frequency:    1.3002049809
  - # 10
    frequency:    1.3081947003
  - # 11
    frequency:    1.3202503919
  - # 12
    frequency:    1.4289729316
  - # 13
    frequency:    1.5443738203
  - # 14
    frequency:    1.5470706664
  - # 15
    frequency:    1.5957178070
  - # 16
    frequency:    1.6517765096
  - # 17
    frequency:    1.6717615748
  - # 18
    frequency:    1.9390758934
  - # 19
    frequency:    1.9447198362
  - # 20
    frequency:    1.9457684038
  - # 21
    frequency:    2.0996270363
  - # 22
    frequency:    2.1904093366
  - # 23
    frequency:    2.2228060406
  - # 24
    frequency:    2.2334830560
  - # 25
    frequency:    2.3815770366
  - # 26
    frequency:    2.4486510259
  - # 27
    frequency:    2.4907469639
  - # 28
    frequency:    2.5791909583
  - # 29
    frequency:    2.5896428109
  - # 30
    frequency:    2.6094345238
  - # 31
    frequency:    2.6123019384
  - # 32
    frequency:    2.7390464026
  - # 33
    frequency:    2.7494576028
  - # 34
    frequency:    2.7854544259
  - # 35
    frequency:    2.7902122015
  - # 36
    frequency:    2.7973946038
  - # 37
    frequency:    3.0208788362
  - # 38
    frequency:    3.0254805726
  - # 39
    frequency:    3.0302750298
  - # 40
    frequency:    3.0551108538
  - # 41
    frequency:    3.0624501150
  - # 42
    frequency:    3.0701485866
  - # 43
    frequency:    3.6031931038
  - # 44
    frequency:    3.6839769813
  - # 45
    frequency:    3.7355483639
  - # 46
    frequency:    4.3348389755
  - # 47
    frequency:    4.4336695058
  - # 48
    frequency:    4.4991473259
  - # 49
    frequency:    8.0300001275
  - # 50
    frequency:    8.0344993546
  - # 51
    frequency:    8.1169268461
  - # 52
    frequency:    8.1752301407
  - # 53
    frequency:    8.2456979845
  - # 54
    frequency:    8.2800930116
  - # 55
    frequency:    8.3543452560
  - # 56
    frequency:    8.4041680019
  - # 57
    frequency:    8.9820000954
  - # 58
    frequency:    9.0717471163
  - # 59
    frequency:    9.0769607926
  - # 60
    frequency:    9.0781233841

- q-position: [    0.0000000,    0.0800000,    0.0000000 ]
  distance:    0.0105452
  band:
  - # 1
    frequency:    0.0566078978
  - # 2
    frequency:    0.1694733920
  - # 3
    frequency:    0.3388244810
  - # 4
    frequency:    0.9783449457
  - # 5
    frequency:    0.9917398548
  - # 6
    frequency:    1.1246892805
  - # 7
    frequency:    1.1882937214
  - # 8
    frequency:    1.2091047154
  - # 9
    frequency:    1.2969202632
  - # 10
    frequency:    1.3084101093
  - # 11
    frequency:    1.3217731343
  - # 12
    frequency:    1.4285748123
  - # 13
    frequency:    1.5411094862
  - # 14
    frequency:    1.5420135716
  - # 15
    frequency:    1.5992131805
  - # 16
    frequency:    1.6515837154
  - # 17
    frequency:    1.6758815264
  - # 18
    frequency:    1.9376607386
  - # 19
    frequency:    1.9445640324
  - # 20
    frequency:    1.9457942809
  - # 21
    frequency:    2.0945560053
  - # 22
    frequency:    2.1890998334
  - # 23
    frequency:    2.2258886228
  - # 24
    frequency:    2.2407500671
  - # 25
    frequency:    2.3737015537
  - # 26
    frequency:    2.4509759940
  - # 27
    frequency:    2.4961317409
  - # 28
    frequency:    2.5759403619
  - # 29
    frequency:    2.5888414840
  - # 30
    frequency:    2.6111438679
  - # 31
    frequency:    2.6153137442
  - # 32
    frequency:    2.7402329245
  - # 33
    frequency:    2.7536335568
  - # 34
    frequency:    2.7858585041
  - # 35
    frequency:    2.7920397151
  - # 36
    frequency:    2.8009517320
  - # 37
    frequency:    3.0167513245
  - # 38
    frequency:    3.0242231285
  - # 39
    frequency:    3.0287530846
  - # 40
    frequency:    3.0573059607
  - # 41
    frequency:    3.0622755600
  - # 42
    frequency:    3.0717220653
  - # 43
    frequency:    3.5932122046
  - # 44
    frequency:    3.6876323136
  - # 45
    frequency:    3.7439490935
  - # 46
    frequency:    4.3207613064
  - # 47
    frequency:    4.4361285669
  - # 48
    frequency:    4.5081930632
  - # 49
    frequency:    8.0223863273
  - # 50
    frequency:    8.0245737386
  - # 51
    frequency:    8.1195766433
  - # 52
    frequency:    8.1704510747
  - # 53
    frequency:    8.2572548953
  - # 54
    frequency:    8.2771251090
  - # 55
    frequency:    8.3611127672
  - # 56
    frequency:    8.4160651994
  - # 57
    frequency:    8.9799745214
  - # 58
    frequency:    9.0697533241
  - # 59
    frequency:    9.0756635360
  - # 60
    frequency:    9.0775940055

- q-position: [    0.0000000,    0.0900000,    0.0000000 ]
  distance:    0.0118634
  band:
  - # 1
    frequency:    0.0780387239
  - # 2
    frequency:    0.1860953596
  - # 3
    frequency:    0.3803776682
  - # 4
    frequency:    0.9750778363
  - # 5
    frequency:    0.9913404842
  - # 6
    frequency:    1.1190841669
  - # 7
    frequency:    1.1925134227
  - # 8
    frequency:    1.2129551794
  - # 9
    frequency:    1.2932709178
  - # 10
    frequency:    1.3088273987
  - # 11
    frequency:    1.3233389159
  - # 12
    frequency:    1.4279713500
  - # 13
    frequency:    1.5369747855
  - # 14
    frequency:    1.5380197568
  - # 15
    frequency:    1.6026555371
  - # 16
    frequency:    1.6513782340
  - # 17
    frequency:    1.6799551297
  - # 18
    frequency:    1.9360811804
  - # 19
    frequency:    1.9443025913
  - # 20
    frequency:    1.9458032630
  - # 21
    frequency:    2.0894399216
  - # 22
    frequency:    2.1878786126
  - # 23
    frequency:    2.2289840878
  - # 24
    frequency:    2.2483601061
  - # 25
    frequency:    2.3661072856
  - # 26
    frequency:    2.4534638611
  - # 27
    frequency:    2.5009616525
  - # 28
    frequency:    2.5726391769
  - # 29
    frequency:    2.5880609578
  - # 30
    frequency:    2.6129046237
  - # 31
    frequency:    2.6186092231
  - # 32
    frequency:    2.7415250236
  - # 33
    frequency:    2.7582015961
  - # 34
    frequency:    2.7863136815
  - # 35
    frequency:    2.7942197959
  - # 36
    frequency:    2.8049232198
  - # 37
    frequency:    3.0114116659
  - # 38
    frequency:    3.0235701138
  - # 39
    frequency:    3.0272520591
  - # 40
    frequency:    3.0595880472
  - # 41
    frequency:    3.0621434070
  - # 42
    frequency:    3.0734066333
  - # 43
    frequency:    3.5832076685
  - # 44
    frequency:    3.6917335175
  - # 45
    frequency:    3.7521041475
  - # 46
    frequency:    4.3064584097
  - # 47
    frequency:    4.4388765780
  - # 48
    frequency:    4.5168625285
  - # 49
    frequency:    8.0144894757
  - # 50
    frequency:    8.0147113286
  - # 51
    frequency:    8.1213223768
  - # 52
    frequency:    8.1654549658
  - # 53
    frequency:    8.2691817436
  - # 54
    frequency:    8.2754471086
  - # 55
    frequency:    8.3683600317
  - # 56
    frequency:    8.4281446988
  - # 57
    frequency:    8.9776989603
  - # 58
    frequency:    9.0675519956
  - # 59
    frequency:    9.0741393334
  - # 60
    frequency:    9.0769763205

- q-position: [    0.0000000,    0.1000000,    0.0000000 ]
  distance:    0.0131815
  band:
  - # 1
    frequency:    0.0977242956
  - # 2
    frequency:    0.2026019064
  - # 3
    frequency:    0.4215562715
  - # 4
    frequency:    0.9717122034
  - # 5
    frequency:    0.9909131870
  - # 6
    frequency:    1.1135398868
  - # 7
    frequency:    1.1969794088
  - # 8
    frequency:    1.2164774402
  - # 9
    frequency:    1.2892773373
  - # 10
    frequency:    1.3094542356
  - # 11
    frequency:    1.3249430836
  - # 12
    frequency:    1.4271134568
  - # 13
    frequency:    1.5320621097
  - # 14
    frequency:    1.5351315624
  - # 15
    frequency:    1.6060458559
  - # 16
    frequency:    1.6511647034
  - # 17
    frequency:    1.6839105982
  - # 18
    frequency:    1.9343381933
  - # 19
    frequency:    1.9439089800
  - # 20
    frequency:    1.9457965341
  - # 21
    frequency:    2.0843498931
  - # 22
    frequency:    2.1867205076
  - # 23
    frequency:    2.2320699109
  - # 24
    frequency:    2.2562391919
  - # 25
    frequency:    2.3588424503
  - # 26
    frequency:    2.4560557019
  - # 27
    frequency:    2.5052460239
  - # 28
    frequency:    2.5693480554
  - # 29
    frequency:    2.5872727764
  - # 30
    frequency:    2.6147196009
  - # 31
    frequency:    2.6221903043
  - # 32
    frequency:    2.7429092682
  - # 33
    frequency:    2.7630985988
  - # 34
    frequency:    2.7868162285
  - # 35
    frequency:    2.7968045889
  - # 36
    frequency:    2.8092838703
  - # 37
    frequency:    3.0053973287
  - # 38
    frequency:    3.0229905155
  - # 39
    frequency:    3.0257717370
  - # 40
    frequency:    3.0619640258
  - # 41
    frequency:    3.0620725073
  - # 42
    frequency:    3.0752076732
  - # 43
    frequency:    3.5731851523
  - # 44
    frequency:    3.6962658742
  - # 45
    frequency:    3.7599836244
  - # 46
    frequency:    4.2919576730
  - # 47
    frequency:    4.4418999190
  - # 48
    frequency:    4.5251565304
  - # 49
    frequency:    8.0043352617
  - # 50
    frequency:    8.0069842706
  - # 51
    frequency:    8.1221327760
  - # 52
    frequency:    8.1603091830
  - # 53
    frequency:    8.2750975763